# Graphene cell with dimension 20 x 20 x 1 and a = 1.7321
      1600  atoms
         1  atom types

 0.    34.64200000000000  xlo xhi
 0.    60.00170407580104  ylo yhi
 0.    17.32100000000000  zlo zhi

Atoms

1 1     0.00000000000000     0.00000000000000     0.00000000000000
2 1     0.00000000000000     1.00002840126335     0.00000000000000
3 1     0.86605000000000     1.50004260189503     0.00000000000000
4 1     0.86605000000000     2.50007100315838     0.00000000000000
5 1     1.73210000000000     0.00000000000000     0.00000000000000
6 1     1.73210000000000     1.00002840126335     0.00000000000000
7 1     2.59815000000000     1.50004260189503     0.00000000000000
8 1     2.59815000000000     2.50007100315838     0.00000000000000
9 1     3.46420000000000     0.00000000000000     0.00000000000000
10 1     3.46420000000000     1.00002840126335     0.00000000000000
11 1     4.33025000000000     1.50004260189503     0.00000000000000
12 1     4.33025000000000     2.50007100315838     0.00000000000000
13 1     5.19630000000000     0.00000000000000     0.00000000000000
14 1     5.19630000000000     1.00002840126335     0.00000000000000
15 1     6.06235000000000     1.50004260189503     0.00000000000000
16 1     6.06235000000000     2.50007100315838     0.00000000000000
17 1     6.92840000000000     0.00000000000000     0.00000000000000
18 1     6.92840000000000     1.00002840126335     0.00000000000000
19 1     7.79445000000000     1.50004260189503     0.00000000000000
20 1     7.79445000000000     2.50007100315838     0.00000000000000
21 1     8.66050000000000     0.00000000000000     0.00000000000000
22 1     8.66050000000000     1.00002840126335     0.00000000000000
23 1     9.52655000000000     1.50004260189503     0.00000000000000
24 1     9.52655000000000     2.50007100315838     0.00000000000000
25 1    10.39260000000000     0.00000000000000     0.00000000000000
26 1    10.39260000000000     1.00002840126335     0.00000000000000
27 1    11.25865000000000     1.50004260189503     0.00000000000000
28 1    11.25865000000000     2.50007100315838     0.00000000000000
29 1    12.12470000000000     0.00000000000000     0.00000000000000
30 1    12.12470000000000     1.00002840126335     0.00000000000000
31 1    12.99075000000000     1.50004260189503     0.00000000000000
32 1    12.99075000000000     2.50007100315838     0.00000000000000
33 1    13.85680000000000     0.00000000000000     0.00000000000000
34 1    13.85680000000000     1.00002840126335     0.00000000000000
35 1    14.72285000000000     1.50004260189503     0.00000000000000
36 1    14.72285000000000     2.50007100315838     0.00000000000000
37 1    15.58890000000000     0.00000000000000     0.00000000000000
38 1    15.58890000000000     1.00002840126335     0.00000000000000
39 1    16.45495000000000     1.50004260189503     0.00000000000000
40 1    16.45495000000000     2.50007100315838     0.00000000000000
41 1    17.32100000000000     0.00000000000000     0.00000000000000
42 1    17.32100000000000     1.00002840126335     0.00000000000000
43 1    18.18705000000000     1.50004260189503     0.00000000000000
44 1    18.18705000000000     2.50007100315838     0.00000000000000
45 1    19.05310000000000     0.00000000000000     0.00000000000000
46 1    19.05310000000000     1.00002840126335     0.00000000000000
47 1    19.91915000000000     1.50004260189503     0.00000000000000
48 1    19.91915000000000     2.50007100315838     0.00000000000000
49 1    20.78520000000000     0.00000000000000     0.00000000000000
50 1    20.78520000000000     1.00002840126335     0.00000000000000
51 1    21.65125000000000     1.50004260189503     0.00000000000000
52 1    21.65125000000000     2.50007100315838     0.00000000000000
53 1    22.51730000000000     0.00000000000000     0.00000000000000
54 1    22.51730000000000     1.00002840126335     0.00000000000000
55 1    23.38335000000000     1.50004260189503     0.00000000000000
56 1    23.38335000000000     2.50007100315838     0.00000000000000
57 1    24.24940000000000     0.00000000000000     0.00000000000000
58 1    24.24940000000000     1.00002840126335     0.00000000000000
59 1    25.11545000000000     1.50004260189503     0.00000000000000
60 1    25.11545000000000     2.50007100315838     0.00000000000000
61 1    25.98150000000000     0.00000000000000     0.00000000000000
62 1    25.98150000000000     1.00002840126335     0.00000000000000
63 1    26.84755000000000     1.50004260189503     0.00000000000000
64 1    26.84755000000000     2.50007100315838     0.00000000000000
65 1    27.71360000000000     0.00000000000000     0.00000000000000
66 1    27.71360000000000     1.00002840126335     0.00000000000000
67 1    28.57965000000000     1.50004260189503     0.00000000000000
68 1    28.57965000000000     2.50007100315838     0.00000000000000
69 1    29.44570000000000     0.00000000000000     0.00000000000000
70 1    29.44570000000000     1.00002840126335     0.00000000000000
71 1    30.31175000000000     1.50004260189503     0.00000000000000
72 1    30.31175000000000     2.50007100315838     0.00000000000000
73 1    31.17780000000000     0.00000000000000     0.00000000000000
74 1    31.17780000000000     1.00002840126335     0.00000000000000
75 1    32.04385000000000     1.50004260189503     0.00000000000000
76 1    32.04385000000000     2.50007100315838     0.00000000000000
77 1    32.90990000000000     0.00000000000000     0.00000000000000
78 1    32.90990000000000     1.00002840126335     0.00000000000000
79 1    33.77595000000000     1.50004260189503     0.00000000000000
80 1    33.77595000000000     2.50007100315838     0.00000000000000
81 1     0.00000000000000     3.00008520379005     0.00000000000000
82 1     0.00000000000000     4.00011360505340     0.00000000000000
83 1     0.86605000000000     4.50012780568508     0.00000000000000
84 1     0.86605000000000     5.50015620694843     0.00000000000000
85 1     1.73210000000000     3.00008520379005     0.00000000000000
86 1     1.73210000000000     4.00011360505340     0.00000000000000
87 1     2.59815000000000     4.50012780568508     0.00000000000000
88 1     2.59815000000000     5.50015620694843     0.00000000000000
89 1     3.46420000000000     3.00008520379005     0.00000000000000
90 1     3.46420000000000     4.00011360505340     0.00000000000000
91 1     4.33025000000000     4.50012780568508     0.00000000000000
92 1     4.33025000000000     5.50015620694843     0.00000000000000
93 1     5.19630000000000     3.00008520379005     0.00000000000000
94 1     5.19630000000000     4.00011360505340     0.00000000000000
95 1     6.06235000000000     4.50012780568508     0.00000000000000
96 1     6.06235000000000     5.50015620694843     0.00000000000000
97 1     6.92840000000000     3.00008520379005     0.00000000000000
98 1     6.92840000000000     4.00011360505340     0.00000000000000
99 1     7.79445000000000     4.50012780568508     0.00000000000000
100 1     7.79445000000000     5.50015620694843     0.00000000000000
101 1     8.66050000000000     3.00008520379005     0.00000000000000
102 1     8.66050000000000     4.00011360505340     0.00000000000000
103 1     9.52655000000000     4.50012780568508     0.00000000000000
104 1     9.52655000000000     5.50015620694843     0.00000000000000
105 1    10.39260000000000     3.00008520379005     0.00000000000000
106 1    10.39260000000000     4.00011360505340     0.00000000000000
107 1    11.25865000000000     4.50012780568508     0.00000000000000
108 1    11.25865000000000     5.50015620694843     0.00000000000000
109 1    12.12470000000000     3.00008520379005     0.00000000000000
110 1    12.12470000000000     4.00011360505340     0.00000000000000
111 1    12.99075000000000     4.50012780568508     0.00000000000000
112 1    12.99075000000000     5.50015620694843     0.00000000000000
113 1    13.85680000000000     3.00008520379005     0.00000000000000
114 1    13.85680000000000     4.00011360505340     0.00000000000000
115 1    14.72285000000000     4.50012780568508     0.00000000000000
116 1    14.72285000000000     5.50015620694843     0.00000000000000
117 1    15.58890000000000     3.00008520379005     0.00000000000000
118 1    15.58890000000000     4.00011360505340     0.00000000000000
119 1    16.45495000000000     4.50012780568508     0.00000000000000
120 1    16.45495000000000     5.50015620694843     0.00000000000000
121 1    17.32100000000000     3.00008520379005     0.00000000000000
122 1    17.32100000000000     4.00011360505340     0.00000000000000
123 1    18.18705000000000     4.50012780568508     0.00000000000000
124 1    18.18705000000000     5.50015620694843     0.00000000000000
125 1    19.05310000000000     3.00008520379005     0.00000000000000
126 1    19.05310000000000     4.00011360505340     0.00000000000000
127 1    19.91915000000000     4.50012780568508     0.00000000000000
128 1    19.91915000000000     5.50015620694843     0.00000000000000
129 1    20.78520000000000     3.00008520379005     0.00000000000000
130 1    20.78520000000000     4.00011360505340     0.00000000000000
131 1    21.65125000000000     4.50012780568508     0.00000000000000
132 1    21.65125000000000     5.50015620694843     0.00000000000000
133 1    22.51730000000000     3.00008520379005     0.00000000000000
134 1    22.51730000000000     4.00011360505340     0.00000000000000
135 1    23.38335000000000     4.50012780568508     0.00000000000000
136 1    23.38335000000000     5.50015620694843     0.00000000000000
137 1    24.24940000000000     3.00008520379005     0.00000000000000
138 1    24.24940000000000     4.00011360505340     0.00000000000000
139 1    25.11545000000000     4.50012780568508     0.00000000000000
140 1    25.11545000000000     5.50015620694843     0.00000000000000
141 1    25.98150000000000     3.00008520379005     0.00000000000000
142 1    25.98150000000000     4.00011360505340     0.00000000000000
143 1    26.84755000000000     4.50012780568508     0.00000000000000
144 1    26.84755000000000     5.50015620694843     0.00000000000000
145 1    27.71360000000000     3.00008520379005     0.00000000000000
146 1    27.71360000000000     4.00011360505340     0.00000000000000
147 1    28.57965000000000     4.50012780568508     0.00000000000000
148 1    28.57965000000000     5.50015620694843     0.00000000000000
149 1    29.44570000000000     3.00008520379005     0.00000000000000
150 1    29.44570000000000     4.00011360505340     0.00000000000000
151 1    30.31175000000000     4.50012780568508     0.00000000000000
152 1    30.31175000000000     5.50015620694843     0.00000000000000
153 1    31.17780000000000     3.00008520379005     0.00000000000000
154 1    31.17780000000000     4.00011360505340     0.00000000000000
155 1    32.04385000000000     4.50012780568508     0.00000000000000
156 1    32.04385000000000     5.50015620694843     0.00000000000000
157 1    32.90990000000000     3.00008520379005     0.00000000000000
158 1    32.90990000000000     4.00011360505340     0.00000000000000
159 1    33.77595000000000     4.50012780568508     0.00000000000000
160 1    33.77595000000000     5.50015620694843     0.00000000000000
161 1     0.00000000000000     6.00017040758010     0.00000000000000
162 1     0.00000000000000     7.00019880884346     0.00000000000000
163 1     0.86605000000000     7.50021300947513     0.00000000000000
164 1     0.86605000000000     8.50024141073848     0.00000000000000
165 1     1.73210000000000     6.00017040758010     0.00000000000000
166 1     1.73210000000000     7.00019880884346     0.00000000000000
167 1     2.59815000000000     7.50021300947513     0.00000000000000
168 1     2.59815000000000     8.50024141073848     0.00000000000000
169 1     3.46420000000000     6.00017040758010     0.00000000000000
170 1     3.46420000000000     7.00019880884346     0.00000000000000
171 1     4.33025000000000     7.50021300947513     0.00000000000000
172 1     4.33025000000000     8.50024141073848     0.00000000000000
173 1     5.19630000000000     6.00017040758010     0.00000000000000
174 1     5.19630000000000     7.00019880884346     0.00000000000000
175 1     6.06235000000000     7.50021300947513     0.00000000000000
176 1     6.06235000000000     8.50024141073848     0.00000000000000
177 1     6.92840000000000     6.00017040758010     0.00000000000000
178 1     6.92840000000000     7.00019880884346     0.00000000000000
179 1     7.79445000000000     7.50021300947513     0.00000000000000
180 1     7.79445000000000     8.50024141073848     0.00000000000000
181 1     8.66050000000000     6.00017040758010     0.00000000000000
182 1     8.66050000000000     7.00019880884346     0.00000000000000
183 1     9.52655000000000     7.50021300947513     0.00000000000000
184 1     9.52655000000000     8.50024141073848     0.00000000000000
185 1    10.39260000000000     6.00017040758010     0.00000000000000
186 1    10.39260000000000     7.00019880884346     0.00000000000000
187 1    11.25865000000000     7.50021300947513     0.00000000000000
188 1    11.25865000000000     8.50024141073848     0.00000000000000
189 1    12.12470000000000     6.00017040758010     0.00000000000000
190 1    12.12470000000000     7.00019880884346     0.00000000000000
191 1    12.99075000000000     7.50021300947513     0.00000000000000
192 1    12.99075000000000     8.50024141073848     0.00000000000000
193 1    13.85680000000000     6.00017040758010     0.00000000000000
194 1    13.85680000000000     7.00019880884346     0.00000000000000
195 1    14.72285000000000     7.50021300947513     0.00000000000000
196 1    14.72285000000000     8.50024141073848     0.00000000000000
197 1    15.58890000000000     6.00017040758010     0.00000000000000
198 1    15.58890000000000     7.00019880884346     0.00000000000000
199 1    16.45495000000000     7.50021300947513     0.00000000000000
200 1    16.45495000000000     8.50024141073848     0.00000000000000
201 1    17.32100000000000     6.00017040758010     0.00000000000000
202 1    17.32100000000000     7.00019880884346     0.00000000000000
203 1    18.18705000000000     7.50021300947513     0.00000000000000
204 1    18.18705000000000     8.50024141073848     0.00000000000000
205 1    19.05310000000000     6.00017040758010     0.00000000000000
206 1    19.05310000000000     7.00019880884346     0.00000000000000
207 1    19.91915000000000     7.50021300947513     0.00000000000000
208 1    19.91915000000000     8.50024141073848     0.00000000000000
209 1    20.78520000000000     6.00017040758010     0.00000000000000
210 1    20.78520000000000     7.00019880884346     0.00000000000000
211 1    21.65125000000000     7.50021300947513     0.00000000000000
212 1    21.65125000000000     8.50024141073848     0.00000000000000
213 1    22.51730000000000     6.00017040758010     0.00000000000000
214 1    22.51730000000000     7.00019880884346     0.00000000000000
215 1    23.38335000000000     7.50021300947513     0.00000000000000
216 1    23.38335000000000     8.50024141073848     0.00000000000000
217 1    24.24940000000000     6.00017040758010     0.00000000000000
218 1    24.24940000000000     7.00019880884346     0.00000000000000
219 1    25.11545000000000     7.50021300947513     0.00000000000000
220 1    25.11545000000000     8.50024141073848     0.00000000000000
221 1    25.98150000000000     6.00017040758010     0.00000000000000
222 1    25.98150000000000     7.00019880884346     0.00000000000000
223 1    26.84755000000000     7.50021300947513     0.00000000000000
224 1    26.84755000000000     8.50024141073848     0.00000000000000
225 1    27.71360000000000     6.00017040758010     0.00000000000000
226 1    27.71360000000000     7.00019880884346     0.00000000000000
227 1    28.57965000000000     7.50021300947513     0.00000000000000
228 1    28.57965000000000     8.50024141073848     0.00000000000000
229 1    29.44570000000000     6.00017040758010     0.00000000000000
230 1    29.44570000000000     7.00019880884346     0.00000000000000
231 1    30.31175000000000     7.50021300947513     0.00000000000000
232 1    30.31175000000000     8.50024141073848     0.00000000000000
233 1    31.17780000000000     6.00017040758010     0.00000000000000
234 1    31.17780000000000     7.00019880884346     0.00000000000000
235 1    32.04385000000000     7.50021300947513     0.00000000000000
236 1    32.04385000000000     8.50024141073848     0.00000000000000
237 1    32.90990000000000     6.00017040758010     0.00000000000000
238 1    32.90990000000000     7.00019880884346     0.00000000000000
239 1    33.77595000000000     7.50021300947513     0.00000000000000
240 1    33.77595000000000     8.50024141073848     0.00000000000000
241 1     0.00000000000000     9.00025561137016     0.00000000000000
242 1     0.00000000000000    10.00028401263351     0.00000000000000
243 1     0.86605000000000    10.50029821326518     0.00000000000000
244 1     0.86605000000000    11.50032661452853     0.00000000000000
245 1     1.73210000000000     9.00025561137016     0.00000000000000
246 1     1.73210000000000    10.00028401263351     0.00000000000000
247 1     2.59815000000000    10.50029821326518     0.00000000000000
248 1     2.59815000000000    11.50032661452853     0.00000000000000
249 1     3.46420000000000     9.00025561137016     0.00000000000000
250 1     3.46420000000000    10.00028401263351     0.00000000000000
251 1     4.33025000000000    10.50029821326518     0.00000000000000
252 1     4.33025000000000    11.50032661452853     0.00000000000000
253 1     5.19630000000000     9.00025561137016     0.00000000000000
254 1     5.19630000000000    10.00028401263351     0.00000000000000
255 1     6.06235000000000    10.50029821326518     0.00000000000000
256 1     6.06235000000000    11.50032661452853     0.00000000000000
257 1     6.92840000000000     9.00025561137016     0.00000000000000
258 1     6.92840000000000    10.00028401263351     0.00000000000000
259 1     7.79445000000000    10.50029821326518     0.00000000000000
260 1     7.79445000000000    11.50032661452853     0.00000000000000
261 1     8.66050000000000     9.00025561137016     0.00000000000000
262 1     8.66050000000000    10.00028401263351     0.00000000000000
263 1     9.52655000000000    10.50029821326518     0.00000000000000
264 1     9.52655000000000    11.50032661452853     0.00000000000000
265 1    10.39260000000000     9.00025561137016     0.00000000000000
266 1    10.39260000000000    10.00028401263351     0.00000000000000
267 1    11.25865000000000    10.50029821326518     0.00000000000000
268 1    11.25865000000000    11.50032661452853     0.00000000000000
269 1    12.12470000000000     9.00025561137016     0.00000000000000
270 1    12.12470000000000    10.00028401263351     0.00000000000000
271 1    12.99075000000000    10.50029821326518     0.00000000000000
272 1    12.99075000000000    11.50032661452853     0.00000000000000
273 1    13.85680000000000     9.00025561137016     0.00000000000000
274 1    13.85680000000000    10.00028401263351     0.00000000000000
275 1    14.72285000000000    10.50029821326518     0.00000000000000
276 1    14.72285000000000    11.50032661452853     0.00000000000000
277 1    15.58890000000000     9.00025561137016     0.00000000000000
278 1    15.58890000000000    10.00028401263351     0.00000000000000
279 1    16.45495000000000    10.50029821326518     0.00000000000000
280 1    16.45495000000000    11.50032661452853     0.00000000000000
281 1    17.32100000000000     9.00025561137016     0.00000000000000
282 1    17.32100000000000    10.00028401263351     0.00000000000000
283 1    18.18705000000000    10.50029821326518     0.00000000000000
284 1    18.18705000000000    11.50032661452853     0.00000000000000
285 1    19.05310000000000     9.00025561137016     0.00000000000000
286 1    19.05310000000000    10.00028401263351     0.00000000000000
287 1    19.91915000000000    10.50029821326518     0.00000000000000
288 1    19.91915000000000    11.50032661452853     0.00000000000000
289 1    20.78520000000000     9.00025561137016     0.00000000000000
290 1    20.78520000000000    10.00028401263351     0.00000000000000
291 1    21.65125000000000    10.50029821326518     0.00000000000000
292 1    21.65125000000000    11.50032661452853     0.00000000000000
293 1    22.51730000000000     9.00025561137016     0.00000000000000
294 1    22.51730000000000    10.00028401263351     0.00000000000000
295 1    23.38335000000000    10.50029821326518     0.00000000000000
296 1    23.38335000000000    11.50032661452853     0.00000000000000
297 1    24.24940000000000     9.00025561137016     0.00000000000000
298 1    24.24940000000000    10.00028401263351     0.00000000000000
299 1    25.11545000000000    10.50029821326518     0.00000000000000
300 1    25.11545000000000    11.50032661452853     0.00000000000000
301 1    25.98150000000000     9.00025561137016     0.00000000000000
302 1    25.98150000000000    10.00028401263351     0.00000000000000
303 1    26.84755000000000    10.50029821326518     0.00000000000000
304 1    26.84755000000000    11.50032661452853     0.00000000000000
305 1    27.71360000000000     9.00025561137016     0.00000000000000
306 1    27.71360000000000    10.00028401263351     0.00000000000000
307 1    28.57965000000000    10.50029821326518     0.00000000000000
308 1    28.57965000000000    11.50032661452853     0.00000000000000
309 1    29.44570000000000     9.00025561137016     0.00000000000000
310 1    29.44570000000000    10.00028401263351     0.00000000000000
311 1    30.31175000000000    10.50029821326518     0.00000000000000
312 1    30.31175000000000    11.50032661452853     0.00000000000000
313 1    31.17780000000000     9.00025561137016     0.00000000000000
314 1    31.17780000000000    10.00028401263351     0.00000000000000
315 1    32.04385000000000    10.50029821326518     0.00000000000000
316 1    32.04385000000000    11.50032661452853     0.00000000000000
317 1    32.90990000000000     9.00025561137016     0.00000000000000
318 1    32.90990000000000    10.00028401263351     0.00000000000000
319 1    33.77595000000000    10.50029821326518     0.00000000000000
320 1    33.77595000000000    11.50032661452853     0.00000000000000
321 1     0.00000000000000    12.00034081516021     0.00000000000000
322 1     0.00000000000000    13.00036921642356     0.00000000000000
323 1     0.86605000000000    13.50038341705524     0.00000000000000
324 1     0.86605000000000    14.50041181831859     0.00000000000000
325 1     1.73210000000000    12.00034081516021     0.00000000000000
326 1     1.73210000000000    13.00036921642356     0.00000000000000
327 1     2.59815000000000    13.50038341705524     0.00000000000000
328 1     2.59815000000000    14.50041181831859     0.00000000000000
329 1     3.46420000000000    12.00034081516021     0.00000000000000
330 1     3.46420000000000    13.00036921642356     0.00000000000000
331 1     4.33025000000000    13.50038341705524     0.00000000000000
332 1     4.33025000000000    14.50041181831859     0.00000000000000
333 1     5.19630000000000    12.00034081516021     0.00000000000000
334 1     5.19630000000000    13.00036921642356     0.00000000000000
335 1     6.06235000000000    13.50038341705524     0.00000000000000
336 1     6.06235000000000    14.50041181831859     0.00000000000000
337 1     6.92840000000000    12.00034081516021     0.00000000000000
338 1     6.92840000000000    13.00036921642356     0.00000000000000
339 1     7.79445000000000    13.50038341705524     0.00000000000000
340 1     7.79445000000000    14.50041181831859     0.00000000000000
341 1     8.66050000000000    12.00034081516021     0.00000000000000
342 1     8.66050000000000    13.00036921642356     0.00000000000000
343 1     9.52655000000000    13.50038341705524     0.00000000000000
344 1     9.52655000000000    14.50041181831859     0.00000000000000
345 1    10.39260000000000    12.00034081516021     0.00000000000000
346 1    10.39260000000000    13.00036921642356     0.00000000000000
347 1    11.25865000000000    13.50038341705524     0.00000000000000
348 1    11.25865000000000    14.50041181831859     0.00000000000000
349 1    12.12470000000000    12.00034081516021     0.00000000000000
350 1    12.12470000000000    13.00036921642356     0.00000000000000
351 1    12.99075000000000    13.50038341705524     0.00000000000000
352 1    12.99075000000000    14.50041181831859     0.00000000000000
353 1    13.85680000000000    12.00034081516021     0.00000000000000
354 1    13.85680000000000    13.00036921642356     0.00000000000000
355 1    14.72285000000000    13.50038341705524     0.00000000000000
356 1    14.72285000000000    14.50041181831859     0.00000000000000
357 1    15.58890000000000    12.00034081516021     0.00000000000000
358 1    15.58890000000000    13.00036921642356     0.00000000000000
359 1    16.45495000000000    13.50038341705524     0.00000000000000
360 1    16.45495000000000    14.50041181831859     0.00000000000000
361 1    17.32100000000000    12.00034081516021     0.00000000000000
362 1    17.32100000000000    13.00036921642356     0.00000000000000
363 1    18.18705000000000    13.50038341705524     0.00000000000000
364 1    18.18705000000000    14.50041181831859     0.00000000000000
365 1    19.05310000000000    12.00034081516021     0.00000000000000
366 1    19.05310000000000    13.00036921642356     0.00000000000000
367 1    19.91915000000000    13.50038341705524     0.00000000000000
368 1    19.91915000000000    14.50041181831859     0.00000000000000
369 1    20.78520000000000    12.00034081516021     0.00000000000000
370 1    20.78520000000000    13.00036921642356     0.00000000000000
371 1    21.65125000000000    13.50038341705524     0.00000000000000
372 1    21.65125000000000    14.50041181831859     0.00000000000000
373 1    22.51730000000000    12.00034081516021     0.00000000000000
374 1    22.51730000000000    13.00036921642356     0.00000000000000
375 1    23.38335000000000    13.50038341705524     0.00000000000000
376 1    23.38335000000000    14.50041181831859     0.00000000000000
377 1    24.24940000000000    12.00034081516021     0.00000000000000
378 1    24.24940000000000    13.00036921642356     0.00000000000000
379 1    25.11545000000000    13.50038341705524     0.00000000000000
380 1    25.11545000000000    14.50041181831859     0.00000000000000
381 1    25.98150000000000    12.00034081516021     0.00000000000000
382 1    25.98150000000000    13.00036921642356     0.00000000000000
383 1    26.84755000000000    13.50038341705524     0.00000000000000
384 1    26.84755000000000    14.50041181831859     0.00000000000000
385 1    27.71360000000000    12.00034081516021     0.00000000000000
386 1    27.71360000000000    13.00036921642356     0.00000000000000
387 1    28.57965000000000    13.50038341705524     0.00000000000000
388 1    28.57965000000000    14.50041181831859     0.00000000000000
389 1    29.44570000000000    12.00034081516021     0.00000000000000
390 1    29.44570000000000    13.00036921642356     0.00000000000000
391 1    30.31175000000000    13.50038341705524     0.00000000000000
392 1    30.31175000000000    14.50041181831859     0.00000000000000
393 1    31.17780000000000    12.00034081516021     0.00000000000000
394 1    31.17780000000000    13.00036921642356     0.00000000000000
395 1    32.04385000000000    13.50038341705524     0.00000000000000
396 1    32.04385000000000    14.50041181831859     0.00000000000000
397 1    32.90990000000000    12.00034081516021     0.00000000000000
398 1    32.90990000000000    13.00036921642356     0.00000000000000
399 1    33.77595000000000    13.50038341705524     0.00000000000000
400 1    33.77595000000000    14.50041181831859     0.00000000000000
401 1     0.00000000000000    15.00042601895026     0.00000000000000
402 1     0.00000000000000    16.00045442021361     0.00000000000000
403 1     0.86605000000000    16.50046862084529     0.00000000000000
404 1     0.86605000000000    17.50049702210864     0.00000000000000
405 1     1.73210000000000    15.00042601895026     0.00000000000000
406 1     1.73210000000000    16.00045442021361     0.00000000000000
407 1     2.59815000000000    16.50046862084529     0.00000000000000
408 1     2.59815000000000    17.50049702210864     0.00000000000000
409 1     3.46420000000000    15.00042601895026     0.00000000000000
410 1     3.46420000000000    16.00045442021361     0.00000000000000
411 1     4.33025000000000    16.50046862084529     0.00000000000000
412 1     4.33025000000000    17.50049702210864     0.00000000000000
413 1     5.19630000000000    15.00042601895026     0.00000000000000
414 1     5.19630000000000    16.00045442021361     0.00000000000000
415 1     6.06235000000000    16.50046862084529     0.00000000000000
416 1     6.06235000000000    17.50049702210864     0.00000000000000
417 1     6.92840000000000    15.00042601895026     0.00000000000000
418 1     6.92840000000000    16.00045442021361     0.00000000000000
419 1     7.79445000000000    16.50046862084529     0.00000000000000
420 1     7.79445000000000    17.50049702210864     0.00000000000000
421 1     8.66050000000000    15.00042601895026     0.00000000000000
422 1     8.66050000000000    16.00045442021361     0.00000000000000
423 1     9.52655000000000    16.50046862084529     0.00000000000000
424 1     9.52655000000000    17.50049702210864     0.00000000000000
425 1    10.39260000000000    15.00042601895026     0.00000000000000
426 1    10.39260000000000    16.00045442021361     0.00000000000000
427 1    11.25865000000000    16.50046862084529     0.00000000000000
428 1    11.25865000000000    17.50049702210864     0.00000000000000
429 1    12.12470000000000    15.00042601895026     0.00000000000000
430 1    12.12470000000000    16.00045442021361     0.00000000000000
431 1    12.99075000000000    16.50046862084529     0.00000000000000
432 1    12.99075000000000    17.50049702210864     0.00000000000000
433 1    13.85680000000000    15.00042601895026     0.00000000000000